 Gaussian 16, Revision C.02,
 Gaussian 16:  ES64L-G16RevC.02  7-Dec-2021

 ------------------
 #P HF/6-31G(d) Opt
 ------------------

 -----
 water
 -----
 Symbolic Z-matrix:
 Charge =  0 Multiplicity = 1

 SCF Done:  E(RHF) =  -76.0097683411     A.U. after   10 cycles
 SCF Done:  E(RHF) =  -76.0107037789     A.U. after    9 cycles
 SCF Done:  E(RHF) =  -76.0107465057     A.U. after    8 cycles
 Optimization completed.
    -- Stationary point found.

                         Standard orientation:
 ---------------------------------------------------------------------
 Center     Atomic      Atomic             Coordinates (Angstroms)
 Number     Number       Type             X           Y           Z
 ---------------------------------------------------------------------
      1          8           0        0.000000    0.000000    0.114706
      2          1           0        0.000000    0.753977   -0.458826
      3          1           0       -0.000000   -0.753977   -0.458826
 ---------------------------------------------------------------------

 The electronic state is 1-A1.
 Alpha  occ. eigenvalues --  -20.55789  -1.34615  -0.71423  -0.57084  -0.49822
 Alpha virt. eigenvalues --    0.21302   0.30687   1.03161   1.13341   1.16802
 Alpha virt. eigenvalues --    1.17853   1.38510   1.43126   2.02051   2.03059
 Alpha virt. eigenvalues --    2.06721   2.63561   2.96577   3.97767

 Mulliken charges:
               1
     1  O   -0.868722
     2  H    0.434361
     3  H    0.434361
 Sum of Mulliken charges =  -0.00000

 Dipole moment (field-independent basis, Debye):
    X=             -0.0000    Y=             -0.0000    Z=             -2.1992  Tot=              2.1992
 Quadrupole moment (field-independent basis, Debye-Ang):
   XX=             -7.2057   YY=             -4.1063   ZZ=             -6.0005
   XY=              0.0000   XZ=              0.0000   YZ=              0.0000

 Normal termination of Gaussian 16 at Sun Jan 19 22:46:48 2025.
