 Gaussian 16, Revision C.02,
 Gaussian 16:  ES64L-G16RevC.02  7-Dec-2021

 --------------------------------------------
 #P HF/6-31G(d) Freq Geom=AllCheck Guess=Read
 --------------------------------------------

 Structure from the checkpoint file:  "hf_631gd.chk"
 -----
 water
 -----
 Charge =  0 Multiplicity = 1

                         Standard orientation:
 ---------------------------------------------------------------------
 Center     Atomic      Atomic             Coordinates (Angstroms)
 Number     Number       Type             X           Y           Z
 ---------------------------------------------------------------------
      1          8           0        0.000000    0.000000    0.114706
      2          1           0        0.000000    0.753977   -0.458826
      3          1           0       -0.000000   -0.753977   -0.458826
 ---------------------------------------------------------------------

 SCF Done:  E(RHF) =  -76.0107465057     A.U. after    1 cycles

 The electronic state is 1-A1.
 Alpha  occ. eigenvalues --  -20.55789  -1.34615  -0.71423  -0.57084  -0.49822
 Alpha virt. eigenvalues --    0.21302   0.30687   1.03161   1.13341   1.16802
 Alpha virt. eigenvalues --    1.17853   1.38510   1.43126   2.02051   2.03059
 Alpha virt. eigenvalues --    2.06721   2.63561   2.96577   3.97767

 Mulliken charges:
               1
     1  O   -0.868722
     2  H    0.434361
     3  H    0.434361
 Sum of Mulliken charges =  -0.00000

 Dipole moment (field-independent basis, Debye):
    X=             -0.0000    Y=             -0.0000    Z=             -2.1992  Tot=              2.1992
 Quadrupole moment (field-independent basis, Debye-Ang):
   XX=             -7.2057   YY=             -4.1063   ZZ=             -6.0005
   XY=              0.0000   XZ=              0.0000   YZ=             -0.0000

  Exact polarizability:       2.778       0.000       6.678       0.000       0.000       4.809
 Approx polarizability:       2.363       0.000       5.340       0.000       0.000       4.006

                      1                      2                      3
                     A1                     A1                     B2
 Frequencies --   1826.7716              4070.4769              4188.5883
 Red. masses --      1.0823                 1.0455                 1.0828
 Frc consts  --      2.1279                10.2066                11.1930
 IR Inten    --    107.2364                18.2055                58.0340
 Raman Activ --      5.7258                75.5313                39.1015

 - Thermochemistry -
 -------------------
 Temperature   298.150 Kelvin.  Pressure   1.00000 Atm.
 Atom     1 has atomic number  8 and mass  15.99491

 Molecular mass:    18.01056 amu.
 Principal axes and moments of inertia in atomic units:
                           1         2         3
     Eigenvalues --     2.10273   4.09193   6.19466
           X            0.00000   0.00000   1.00000
           Y            1.00000   0.00000   0.00000
           Z           -0.00000   1.00000   0.00000
 This molecule is an asymmetric top.
 Rotational symmetry number  2.
 Rotational temperatures (Kelvin)     41.19126    21.16699    13.98203
 Rotational constants (GHZ):         858.28650   441.04843   291.33821
 Zero-point vibrational energy      60326.7 (Joules/Mol)
                                   14.41843 (Kcal/Mol)
 Vibrational temperatures:   2628.32  5856.51  6026.44
          (Kelvin)

 Zero-point correction=                           0.022977 (Hartree/Particle)
 Thermal correction to Energy=                    0.025811
 Thermal correction to Enthalpy=                  0.026755
 Thermal correction to Gibbs Free Energy=         0.005380
 Sum of electronic and zero-point Energies=            -75.987769
 Sum of electronic and thermal Energies=               -75.984935
 Sum of electronic and thermal Enthalpies=             -75.983991
 Sum of electronic and thermal Free Energies=          -76.005366

                     E (Thermal)             CV                S
                      KCal/Mol        Cal/Mol-Kelvin    Cal/Mol-Kelvin
 Total                   16.197              5.985             44.987
 Electronic               0.000              0.000              0.000
 Translational            0.889              2.981             34.608
 Rotational               0.889              2.981             10.376
 Vibrational             14.419              0.023              0.003

 Optimization completed.
    -- Stationary point found.
 Normal termination of Gaussian 16 at Sun Jan 19 23:06:42 2025.
