 Gaussian 16, Revision C.02,
 Gaussian 16:  ES64L-G16RevC.02  7-Dec-2021

 ---------------------
 #P B3LYP/6-31G(d) Opt
 ---------------------

 --------
 caffeine
 --------
 Symbolic Z-matrix:
 Charge =  0 Multiplicity = 1

 SCF Done:  E(RB3LYP) =  -680.371373846     A.U. after   15 cycles
 SCF Done:  E(RB3LYP) =  -680.376353023     A.U. after   12 cycles
 SCF Done:  E(RB3LYP) =  -680.376721886     A.U. after   11 cycles
 SCF Done:  E(RB3LYP) =  -680.376764992     A.U. after   10 cycles
 SCF Done:  E(RB3LYP) =  -680.376768507     A.U. after    8 cycles
 Optimization completed.
    -- Stationary point found.

                         Standard orientation:
 ---------------------------------------------------------------------
 Center     Atomic      Atomic             Coordinates (Angstroms)
 Number     Number       Type             X           Y           Z
 ---------------------------------------------------------------------
      1          6           0       -3.305282   -1.018291    0.000001
      2          7           0       -2.276598    0.013757   -0.000000
      3          6           0       -2.451052    1.359434    0.000000
      4          7           0       -1.313315    2.048712   -0.000000
      5          6           0       -0.356603    1.082211   -0.000001
      6          6           0       -0.904115   -0.185382   -0.000001
      7          6           0       -0.124399   -1.387330   -0.000000
      8          8           0       -0.557889   -2.536452    0.000001
      9          7           0        1.262647   -1.092604   -0.000002
     10          6           0        1.862601    0.182824   -0.000001
     11          8           0        3.079336    0.301903    0.000003
     12          7           0        1.003612    1.282543   -0.000002
     13          6           0        1.553680    2.637013    0.000001
     14          6           0        2.202753   -2.218699   -0.000001
     15          1           0       -4.282534   -0.530989   -0.000007
     16          1           0       -3.206476   -1.649487   -0.885897
     17          1           0       -3.206485   -1.649476    0.885909
     18          1           0       -3.438240    1.802830    0.000001
     19          1           0        1.215813    3.177757    0.888603
     20          1           0        2.638262    2.548425   -0.000012
     21          1           0        1.215792    3.177767   -0.888587
     22          1           0        2.840380   -2.172837    0.885980
     23          1           0        2.840404   -2.172816   -0.885963
     24          1           0        1.611589   -3.132332   -0.000018
 ---------------------------------------------------------------------

 The electronic state is 1-A.
 Alpha  occ. eigenvalues --  -19.12430 -19.11973 -14.41899 -14.39447 -14.38754
 Alpha  occ. eigenvalues --  -14.33683 -10.32653 -10.30532 -10.26830 -10.26450
 Alpha  occ. eigenvalues --  -10.24676 -10.22662 -10.22131 -10.21083  -1.06928
 Alpha  occ. eigenvalues --   -1.04520  -1.03457  -0.96970  -0.93183  -0.90329
 Alpha  occ. eigenvalues --   -0.79321  -0.74005  -0.72990  -0.70886  -0.65396
 Alpha  occ. eigenvalues --   -0.63875  -0.60003  -0.57992  -0.53123  -0.50617
 Alpha  occ. eigenvalues --   -0.50399  -0.47882  -0.47799  -0.45178  -0.45161
 Alpha  occ. eigenvalues --   -0.44919  -0.43490  -0.42841  -0.41926  -0.41890
 Alpha  occ. eigenvalues --   -0.39756  -0.38940  -0.38874  -0.38634  -0.32077
 Alpha  occ. eigenvalues --   -0.30292  -0.28541  -0.28038  -0.26545  -0.25847
 Alpha  occ. eigenvalues --   -0.21958
 Alpha virt. eigenvalues --   -0.03124   0.02370   0.03720   0.08773   0.10903
 Alpha virt. eigenvalues --    0.11901   0.12353   0.12865   0.12968   0.13772
 Alpha virt. eigenvalues --    0.14569   0.16374   0.16646   0.17736   0.17888

 Mulliken charges:
               1
     1  C   -0.315667
     2  N   -0.483750
     3  C    0.216219
     4  N   -0.508920
     5  C    0.471180
     6  C    0.220843
     7  C    0.633751
     8  O   -0.539292
     9  N   -0.570867
    10  C    0.783044
    11  O   -0.524754
    12  N   -0.591834
    13  C   -0.324495
    14  C   -0.314102
    15  H    0.166581
    16  H    0.199050
    17  H    0.199049
    18  H    0.169213
    19  H    0.177767
    20  H    0.206404
    21  H    0.177767
    22  H    0.177370
    23  H    0.177371
    24  H    0.198073
 Sum of Mulliken charges =  -0.00000

 Dipole moment (field-independent basis, Debye):
    X=             -3.7258    Y=              0.7249    Z=             -0.0000  Tot=              3.7957
 Quadrupole moment (field-independent basis, Debye-Ang):
   XX=            -73.1372   YY=            -84.7068   ZZ=            -79.2172
   XY=             -0.5176   XZ=             -0.0000   YZ=              0.0000

 Normal termination of Gaussian 16 at Thu Jan 16 16:53:07 2025.
